% Model:              h7-version2.mph
% Version:            COMSOL 5.6.0.401
% Date:               Jan 15 2022, 17:24
% Table:              Eigenfrequencies (Study 1) - 
% a                                               lambda (Hz)                                       Angular frequency (rad/s)                         Damping ratio (1)                                 Quality factor (1)
0.1                                               0.0052174375139834575i                            0.03278212672898845i                              1                                                 0.5
0.1                                               0.007406872373122339i                             0.046538751666956674i                             1                                                 0.5
0.1                                               0.003449610586560224                              0.021674542552966355                              0                                                 Inf
0.1                                               0.003689951865431726                              0.023184651345080527                              0                                                 Inf
0.1                                               0.005769492722815941                              0.03625079190587666                               0                                                 Inf
0.1                                               0.006098379668658094                              0.03831724953171525                               0                                                 Inf
0.1                                               8448.145684749203                                 53081.26483932882                                 0                                                 Inf
0.1                                               8839.689101244803                                 55541.40468097687                                 0                                                 Inf
0.1                                               12557.465214189438                                78900.88092921383                                 0                                                 Inf
0.1                                               20013.340398770582                                125747.52634113896                                0                                                 Inf
0.1                                               20068.926233224698                                126096.78243946838                                0                                                 Inf
0.1                                               20079.791468486572                                126165.05072602484                                0                                                 Inf
0.1                                               26550.333540945427                                166820.66560518567                                0                                                 Inf
0.1                                               32888.06875617106                                 206641.830390286                                  0                                                 Inf
0.1                                               32982.22940835223                                 207233.45921658518                                0                                                 Inf
0.2                                               0.0026746636143556244i                            0.016805407123367106i                             1                                                 0.5
0.2                                               0.00527500824420288i                              0.03314385429522672i                              1                                                 0.5
0.2                                               0.003869406274378909                              0.024312196650686065                              0                                                 Inf
0.2                                               0.004268695650452211                              0.026821005791742736                              0                                                 Inf
0.2                                               0.006115383008630541                              0.03842408466760311                               0                                                 Inf
0.2                                               0.006724584942452586                              0.04225181330729917                               0                                                 Inf
0.2                                               7907.519426014789                                 49684.40987377328                                 0                                                 Inf
0.2                                               8749.233533545319                                 54973.055587054885                                0                                                 Inf
0.2                                               12068.142879941463                                75826.37802819214                                 0                                                 Inf
0.2                                               19633.611908865973                                123361.62187265283                                0                                                 Inf
0.2                                               19757.326931388045                                124138.9462844409                                 0                                                 Inf
0.2                                               19975.844570129695                                125511.93310154202                                0                                                 Inf
0.2                                               27191.073288343563                                170846.5521717636                                 0                                                 Inf
0.2                                               32992.35788820257                                 207297.0983323649                                 0                                                 Inf
0.2                                               33163.112476227834                                208369.98105097876                                0                                                 Inf
0.30000000000000004                               0.0036068673868980346i                            0.02266261617030296i                              1                                                 0.5
0.30000000000000004                               0.0039170166937173255i                            0.024611341737941862i                             1                                                 0.5
0.30000000000000004                               0.0036841380122179723                             0.02314812182798977                               0                                                 Inf
0.30000000000000004                               0.004793694448920933                              0.03011967052856835                               0                                                 Inf
0.30000000000000004                               0.005915658180943981                              0.03716917656480394                               0                                                 Inf
0.30000000000000004                               0.006751527532985503                              0.04242109859627295                               0                                                 Inf
0.30000000000000004                               7283.164094722339                                 45761.46962973731                                 0                                                 Inf
0.30000000000000004                               8623.218460789754                                 54181.27953343395                                 0                                                 Inf
0.30000000000000004                               11478.215559196296                                72119.75535418229                                 0                                                 Inf
0.30000000000000004                               19107.436799644736                                120055.56615739035                                0                                                 Inf
0.30000000000000004                               19347.973669133986                                121566.90388160017                                0                                                 Inf
0.30000000000000004                               19819.82856212761                                 124531.65561237851                                0                                                 Inf
0.30000000000000004                               27797.108648956073                                174654.3846451954                                 0                                                 Inf
0.30000000000000004                               33132.19778317103                                 208175.73830578828                                0                                                 Inf
0.30000000000000004                               33378.75990412172                                 209724.9338014527                                 0                                                 Inf
0.4                                               7.40611534005264E-4i                              0.004653399508789609i                             1                                                 0.5
0.4                                               0.0018892009404005755i                            0.011870199591034754i                             1                                                 0.5
0.4                                               0.004729297650045556i                             0.02971505350804518i                              1                                                 0.5
0.4                                               0.002536017046277779                              0.015934265043929516                              0                                                 Inf
0.4                                               0.0032914932977799005                             0.020681062327290754                              0                                                 Inf
0.4                                               0.0040405135759171325                             0.025387295533662178                              0                                                 Inf
0.4                                               6587.745441835499                                 41392.0253675801                                  0                                                 Inf
0.4                                               8459.825855499073                                 53154.65351656975                                 0                                                 Inf
0.4                                               10785.810625683018                                67769.246849313                                   0                                                 Inf
0.4                                               18508.856730894186                                116294.57666424634                                0                                                 Inf
0.4                                               18768.581482579666                                117926.47540794741                                0                                                 Inf
0.4                                               19607.31836551101                                 123196.41466737125                                0                                                 Inf
0.4                                               28360.196722249875                                178192.37135396307                                0                                                 Inf
0.4                                               33287.844624875885                                209153.69625469713                                0                                                 Inf
0.4                                               33640.28860693093                                 211368.16710434927                                0                                                 Inf
0.5                                               0.004489779692861904i                             0.02821011779866319i                              1                                                 0.5
0.5                                               0.005037579959213947i                             0.03165204838347541i                              1                                                 0.5
0.5                                               0.008001368753372207i                             0.05027408258851409i                              1                                                 0.5
0.5                                               0.004693959526735477                              0.02949301753087999                               0                                                 Inf
0.5                                               0.005466919166331015                              0.034349666181429504                              0                                                 Inf
0.5                                               0.00781464446312888                               0.049100859271563685                              0                                                 Inf
0.5                                               5836.370055804003                                 36670.99458189061                                 0                                                 Inf
0.5                                               8256.434379950548                                 51876.70718579768                                 0                                                 Inf
0.5                                               9991.699840067138                                 62779.701628858464                                0                                                 Inf
0.5                                               17851.286295236547                                112162.93976448658                                0                                                 Inf
0.5                                               18007.22885655577                                 113142.75577453147                                0                                                 Inf
0.5                                               19333.229210665846                                121474.26171679083                                0                                                 Inf
0.5                                               28873.180054654353                                181415.54069095492                                0                                                 Inf
0.5                                               33439.58902179724                                 210107.13441988023                                0                                                 Inf
0.5                                               33959.678850233526                                213374.95518832465                                0                                                 Inf
0.6                                               0.003620858626665052i                             0.02275052572243631i                              1                                                 0.5
0.6                                               0.004911136928383001i                             0.030857583389963153i                             1                                                 0.5
0.6                                               0.00204092892560829                               0.012823534638379827                              0                                                 Inf
0.6                                               0.005045403987983413                              0.03170120820608267                               0                                                 Inf
0.6                                               0.006075406062511407                              0.03817290210712145                               0                                                 Inf
0.6                                               0.0064456827978538345                             0.04049941945021542                               0                                                 Inf
0.6                                               5043.819430863551                                 31691.252140068766                                0                                                 Inf
0.6                                               8008.062392750899                                 50316.13996510985                                 0                                                 Inf
0.6                                               9097.45666113373                                  57161.00602593851                                 0                                                 Inf
0.6                                               17053.936121385872                                107153.04086747093                                0                                                 Inf
0.6                                               17137.141581654698                                107675.83619290913                                0                                                 Inf
0.6                                               18990.56243815706                                 119321.22288650498                                0                                                 Inf
0.6                                               29333.058978329293                                184305.04518727085                                0                                                 Inf
0.6                                               33574.50334991235                                 210954.8261440211                                 0                                                 Inf
0.6                                               34347.979805688665                                215814.72204640415                                0                                                 Inf
0.7000000000000001                                6.630236819891188E-4i                             0.004165900656986142i                             1                                                 0.5
0.7000000000000001                                0.0027771300095143234i                            0.017449222471907902i                             1                                                 0.5
0.7000000000000001                                0.004410163842737628i                             0.027709876658943727i                             1                                                 0.5
0.7000000000000001                                0.0019011040029984837                             0.011944988739060369                              0                                                 Inf
0.7000000000000001                                0.0035636812344317773                             0.022391269571653355                              0                                                 Inf
0.7000000000000001                                0.004588841296598425                              0.028832540211766147                              0                                                 Inf
0.7000000000000001                                4225.476938161299                                 26549.454613681257                                0                                                 Inf
0.7000000000000001                                7706.660284037014                                 48422.37466408582                                 0                                                 Inf
0.7000000000000001                                8106.908499502524                                 50937.208370723565                                0                                                 Inf
0.7000000000000001                                15903.287358916403                                99923.30146939839                                 0                                                 Inf
0.7000000000000001                                16356.82222937318                                 102772.94510374601                                0                                                 Inf
0.7000000000000001                                18569.017498858808                                116672.57791759029                                0                                                 Inf
0.7000000000000001                                29748.09849383641                                 186912.8153730041                                 0                                                 Inf
0.7000000000000001                                33701.670063170146                                211753.8381683248                                 0                                                 Inf
0.7000000000000001                                34813.40177839985                                 218739.0545469816                                 0                                                 Inf
0.8                                               0.005085885865815584i                             0.031955563346084806i                             1                                                 0.5
0.8                                               0.006489973027236623i                             0.04077770316872497i                              1                                                 0.5
0.8                                               0.0021222277181693135                             0.01333435001729069                               0                                                 Inf
0.8                                               0.00457545594963555                               0.02874843759639751                               0                                                 Inf
0.8                                               0.005134789499397064                              0.03226283393807166                               0                                                 Inf
0.8                                               0.005904339391458876                              0.03709805851301607                               0                                                 Inf
0.8                                               3394.273998271399                                 21326.85251448056                                 0                                                 Inf
0.8                                               7020.854815860134                                 44113.33182285343                                 0                                                 Inf
0.8                                               7337.633134510738                                 46103.70870023196                                 0                                                 Inf
0.8                                               14539.142710241746                                91352.12785597812                                 0                                                 Inf
0.8                                               15482.89802875308                                 97281.91740682113                                 0                                                 Inf
0.8                                               18050.747221682315                                113416.18972688707                                0                                                 Inf
0.8                                               30140.491955274756                                189378.29620454687                                0                                                 Inf
0.8                                               33852.48714939006                                 212701.44986853335                                0                                                 Inf
0.8                                               35358.904076476116                                222166.5465712871                                 0                                                 Inf
0.9                                               0.0027935476726536164i                            0.01755237769172293i                              1                                                 0.5
0.9                                               0.004872775107783626i                             0.030616548962416505i                             1                                                 0.5
0.9                                               0.005290467559867094i                             0.033240988040267164i                             1                                                 0.5
0.9                                               0.0032901087391661843                             0.020672362888952123                              0                                                 Inf
0.9                                               0.005090505800897982                              0.03198459125431465                               0                                                 Inf
0.9                                               0.0057267880004463565                             0.03598247022173691                               0                                                 Inf
0.9                                               2565.632238727031                                 16120.34278599595                                 0                                                 Inf
0.9                                               5841.537450609604                                 36703.46228100956                                 0                                                 Inf
0.9                                               6877.113487019142                                 43210.17841744524                                 0                                                 Inf
0.9                                               12935.93688522123                                 81278.8885718245                                  0                                                 Inf
0.9                                               14468.121863157616                                90905.89071307567                                 0                                                 Inf
0.9                                               17403.931217854904                                109352.12491519006                                0                                                 Inf
0.9                                               30558.195313491175                                192002.80380765183                                0                                                 Inf
0.9                                               34107.645569192246                                214304.65750283762                                0                                                 Inf
0.9                                               35981.79503741621                                 226080.2859050409                                 0                                                 Inf
1                                                 0.0033539985196344596i                            0.02107379421886932i                              1                                                 0.5
1                                                 0.003658912587468035i                             0.0229896258098336i                               1                                                 0.5
1                                                 0.004216338055036743                              0.02649203331750902                               0                                                 Inf
1                                                 0.0047882633527288                                0.03008554594477206                               0                                                 Inf
1                                                 0.006117092086187988                              0.03843482311860089                               0                                                 Inf
1                                                 0.006712087142434296                              0.042173287313852184                              0                                                 Inf
1                                                 1750.280426382985                                 10997.336258493593                                0                                                 Inf
1                                                 4559.189154424717                                 28646.230307733906                                0                                                 Inf
1                                                 6275.616469478116                                 39430.86119451913                                 0                                                 Inf
1                                                 11010.663473637042                                69182.0389598552                                  0                                                 Inf